User input:
--------------------------------------------------------------
$molecule
0 1
C       -3.5943800000    1.2676300000   -0.0422700000
C       -2.0687200000    1.2542600000   -0.0355200000
H       -3.9815100000    1.6241800000    0.9360600000
H       -3.9748200000    0.2400800000   -0.2221600000
H       -3.9712300000    1.9326500000   -0.8484200000
H       -1.7164200000    0.5679600000    0.7647900000
C       -1.5033900000    2.6547400000    0.2098000000
H       -1.7043800000    0.8761800000   -1.0153400000
H       -1.8645500000    3.0653400000    1.1807400000
H       -1.8498100000    3.3446700000   -0.5891400000
O       -0.1024500000    2.6238100000    0.1879100000
H        0.1883200000    2.2668100000    1.0676000000
$end

$rem
jobtype               opt
exchange              hf
correlation           rimp2
basis                 6-31g*
basis2                r64g
aux_basis             rimp2-vdz
dual_basis_energy     true
n_frozen_core         fc
mem_static            800
geom_opt_max_cycles   100
$end

$opt
constraint
tors 1 2 7 11 -165
tors 2 7 11 12 -75
endconstraint
$end

--------------------------------------------------------------

   11    -192.9584489248      9.54E-09  00000 Convergence criterion met
   11    -192.9628973186      3.06E-09  00000 Convergence criterion met
   10    -192.9678665907      6.38E-09  00000 Convergence criterion met
   10    -192.9678031468      4.06E-09  00000 Convergence criterion met
    8    -192.9681605385      9.60E-09  00000 Convergence criterion met
    9    -192.9683474774      5.47E-09  00000 Convergence criterion met
    8    -192.9683378153      4.75E-09  00000 Convergence criterion met

             Standard Nuclear Orientation (Angstroms)
    I     Atom           X                Y                Z
 ----------------------------------------------------------------
    1      C       1.8980163992    -0.1297654592    -0.0178548486
    2      C       0.5167104869     0.5195882123     0.0344605191
    3      H       2.0764121043    -0.7542695871     0.8601697094
    4      H       2.6859357461     0.6237038584    -0.0563912506
    5      H       1.9931099556    -0.7615679345    -0.9027828748
    6      H       0.4404513765     1.1827863336     0.9008975745
    7      C      -0.6024662085    -0.5105450293     0.0769919146
    8      H       0.3612501051     1.1366425049    -0.8530218716
    9      H      -0.6224319999    -1.0340739624     1.0384589789
   10      H      -0.4522550902    -1.2566487402    -0.7045215808
   11      O      -1.8933582540     0.0716644397    -0.2211326138
   12      H      -2.1550950080     0.5734682928     0.5832160549
 ----------------------------------------------------------------

    7    -192.9683365986      9.46E-09  00000 Convergence criterion met
 Final energy is   -193.668269676107
 **  OPTIMIZATION CONVERGED  **

                    Orbital Energies (a.u.)
 --------------------------------------------------------------

 Alpha MOs
 -- Occupied --
-20.531 -11.291 -11.220 -11.208  -1.346  -1.059  -0.920  -0.816
 -0.686  -0.626  -0.596  -0.589  -0.536  -0.504  -0.501  -0.474
 -0.442

          Ground-State Mulliken Net Atomic Charges

     Atom                 Charge (a.u.)
  ----------------------------------------
      1 C                    -0.465849
      2 C                    -0.303490
      3 H                     0.150409
      4 H                     0.158270
      5 H                     0.155365
      6 H                     0.141815
      7 C                    -0.040311
      8 H                     0.166710
      9 H                     0.139983
     10 H                     0.159833
     11 O                    -0.672435
     12 H                     0.409701
  ----------------------------------------
  Sum of atomic charges =     0.000000

                    Cartesian Multipole Moments
 -----------------------------------------------------------------
    Charge (ESU x 10^10)
                 0.0000
    Dipole Moment (Debye)
         X       1.0718      Y       0.2466      Z       1.4813
       Tot       1.8449
    Quadrupole Moments (Debye-Ang)
        XX     -29.1342     XY      -1.2778     YY     -25.9234
        XZ      -3.5919     YZ       0.9137     ZZ     -25.6692

 Total job time:  26.14s(wall), 25.44s(cpu)
        *  Thank you very much for using Q-Chem.  Have a nice day.  *
